# vtk DataFile Version 3.0
vtk output
ASCII
DATASET POLYDATA
POINTS 1734 float
0 0 0 30 0 0 30 30 0 
0 30 0 0 0 30 30 0 30 
30 30 30 0 30 30 0 0 0 
0 0 0 30 0 0 30 0 0 
30 30 0 30 30 0 0 30 0 
0 30 0 0 0 30 0 0 30 
30 0 30 30 0 30 30 30 30 
30 30 30 0 30 30 0 30 30 
15 15 0 15 0 0 30 15 0 
0 15 0 15 30 0 15 0 15 
30 0 15 15 0 0 0 0 15 
15 0 30 30 15 15 30 0 15 
30 15 30 30 15 0 30 30 15 
15 30 15 15 30 0 30 30 15 
0 30 15 15 30 30 0 15 15 
0 15 30 0 0 15 0 15 0 
0 30 15 15 15 30 30 15 30 
15 0 30 0 15 30 15 30 30 
7.5 7.5 0 7.5 0 0 15 7.5 0 
22.5 7.5 0 22.5 0 0 30 7.5 0 
22.5 15 0 30 22.5 0 22.5 22.5 0 
0 7.5 0 7.5 15 0 15 22.5 0 
22.5 30 0 7.5 22.5 0 7.5 30 0 
0 22.5 0 22.5 0 22.5 30 0 22.5 
22.5 0 15 22.5 0 7.5 30 0 7.5 
22.5 0 0 15 0 7.5 7.5 0 0 
7.5 0 7.5 0 0 22.5 7.5 0 30 
7.5 0 22.5 15 0 22.5 22.5 0 30 
7.5 0 15 0 0 7.5 30 7.5 7.5 
30 0 7.5 30 7.5 15 30 7.5 22.5 
30 0 22.5 30 7.5 30 30 15 22.5 
30 22.5 30 30 22.5 22.5 30 7.5 0 
30 15 7.5 30 22.5 15 30 30 22.5 
30 22.5 7.5 30 30 7.5 30 22.5 0 
7.5 30 7.5 7.5 30 0 15 30 7.5 
22.5 30 7.5 22.5 30 0 30 30 7.5 
22.5 30 15 30 30 22.5 22.5 30 22.5 
0 30 7.5 7.5 30 15 15 30 22.5 
22.5 30 30 7.5 30 22.5 7.5 30 30 
0 30 22.5 0 22.5 22.5 0 22.5 30 
0 15 22.5 0 7.5 22.5 0 7.5 30 
0 0 22.5 0 7.5 15 0 0 7.5 
0 7.5 7.5 0 22.5 0 0 30 7.5 
0 22.5 7.5 0 22.5 15 0 30 22.5 
0 15 7.5 0 7.5 0 22.5 22.5 30 
30 22.5 30 22.5 15 30 22.5 7.5 30 
30 7.5 30 22.5 0 30 15 7.5 30 
7.5 0 30 7.5 7.5 30 0 22.5 30 
7.5 30 30 7.5 22.5 30 15 22.5 30 
22.5 30 30 7.5 15 30 0 7.5 30 
3.75 3.75 0 3.75 0 0 7.5 3.75 0 
11.25 3.75 0 11.25 0 0 15 3.75 0 
11.25 7.5 0 15 11.25 0 11.25 11.25 0 
18.75 3.75 0 18.75 0 0 22.5 3.75 0 
26.25 3.75 0 26.25 0 0 30 3.75 0 
26.25 7.5 0 30 11.25 0 26.25 11.25 0 
26.25 15 0 30 18.75 0 26.25 18.75 0 
26.25 22.5 0 30 26.25 0 26.25 26.25 0 
22.5 18.75 0 18.75 18.75 0 18.75 15 0 
18.75 7.5 0 22.5 11.25 0 18.75 11.25 0 
0 3.75 0 3.75 7.5 0 7.5 11.25 0 
11.25 15 0 3.75 11.25 0 3.75 15 0 
0 11.25 0 15 18.75 0 18.75 22.5 0 
22.5 26.25 0 26.25 30 0 18.75 26.25 0 
18.75 30 0 15 26.25 0 11.25 26.25 0 
11.25 30 0 7.5 26.25 0 3.75 26.25 0 
3.75 30 0 0 26.25 0 3.75 22.5 0 
0 18.75 0 3.75 18.75 0 11.25 18.75 0 
11.25 22.5 0 7.5 18.75 0 26.25 0 26.25 
30 0 26.25 26.25 0 22.5 26.25 0 18.75 
30 0 18.75 26.25 0 15 22.5 0 18.75 
18.75 0 15 18.75 0 18.75 26.25 0 11.25 
30 0 11.25 26.25 0 7.5 26.25 0 3.75 
30 0 3.75 26.25 0 0 22.5 0 3.75 
18.75 0 0 18.75 0 3.75 15 0 3.75 
11.25 0 0 11.25 0 3.75 7.5 0 3.75 
3.75 0 0 3.75 0 3.75 11.25 0 7.5 
11.25 0 11.25 15 0 11.25 22.5 0 11.25 
18.75 0 7.5 18.75 0 11.25 0 0 26.25 
3.75 0 30 3.75 0 26.25 7.5 0 26.25 
11.25 0 30 11.25 0 26.25 3.75 0 22.5 
3.75 0 18.75 0 0 18.75 15 0 26.25 
18.75 0 30 18.75 0 26.25 22.5 0 26.25 
26.25 0 30 18.75 0 22.5 15 0 18.75 
11.25 0 15 7.5 0 11.25 3.75 0 7.5 
0 0 3.75 3.75 0 11.25 0 0 11.25 
3.75 0 15 11.25 0 22.5 11.25 0 18.75 
7.5 0 18.75 30 3.75 3.75 30 0 3.75 
30 3.75 7.5 30 3.75 11.25 30 0 11.25 
30 3.75 15 30 7.5 11.25 30 11.25 15 
30 11.25 11.25 30 3.75 18.75 30 0 18.75 
30 3.75 22.5 30 3.75 26.25 30 0 26.25 
30 3.75 30 30 7.5 26.25 30 11.25 30 
30 11.25 26.25 30 15 26.25 30 18.75 30 
30 18.75 26.25 30 22.5 26.25 30 26.25 30 
30 26.25 26.25 30 18.75 22.5 30 18.75 18.75 
30 15 18.75 30 7.5 18.75 30 11.25 22.5 
30 11.25 18.75 30 3.75 0 30 7.5 3.75 
30 11.25 7.5 30 15 11.25 30 11.25 3.75 
30 15 3.75 30 11.25 0 30 18.75 15 
30 22.5 18.75 30 26.25 22.5 30 30 26.25 
30 26.25 18.75 30 30 18.75 30 26.25 15 
30 26.25 11.25 30 30 11.25 30 26.25 7.5 
30 26.25 3.75 30 30 3.75 30 26.25 0 
30 22.5 3.75 30 18.75 0 30 18.75 3.75 
30 18.75 11.25 30 22.5 11.25 30 18.75 7.5 
3.75 30 3.75 3.75 30 0 7.5 30 3.75 
11.25 30 3.75 11.25 30 0 15 30 3.75 
11.25 30 7.5 15 30 11.25 11.25 30 11.25 
18.75 30 3.75 18.75 30 0 22.5 30 3.75 
26.25 30 3.75 26.25 30 0 30 30 3.75 
26.25 30 7.5 30 30 11.25 26.25 30 11.25 
26.25 30 15 30 30 18.75 26.25 30 18.75 
26.25 30 22.5 30 30 26.25 26.25 30 26.25 
22.5 30 18.75 18.75 30 18.75 18.75 30 15 
18.75 30 7.5 22.5 30 11.25 18.75 30 11.25 
0 30 3.75 3.75 30 7.5 7.5 30 11.25 
11.25 30 15 3.75 30 11.25 3.75 30 15 
0 30 11.25 15 30 18.75 18.75 30 22.5 
22.5 30 26.25 26.25 30 30 18.75 30 26.25 
18.75 30 30 15 30 26.25 11.25 30 26.25 
11.25 30 30 7.5 30 26.25 3.75 30 26.25 
3.75 30 30 0 30 26.25 3.75 30 22.5 
0 30 18.75 3.75 30 18.75 11.25 30 18.75 
11.25 30 22.5 7.5 30 18.75 0 26.25 26.25 
0 26.25 30 0 22.5 26.25 0 18.75 26.25 
0 18.75 30 0 15 26.25 0 18.75 22.5 
0 15 18.75 0 18.75 18.75 0 11.25 26.25 
0 11.25 30 0 7.5 26.25 0 3.75 26.25 
0 3.75 30 0 0 26.25 0 3.75 22.5 
0 0 18.75 0 3.75 18.75 0 3.75 15 
0 0 11.25 0 3.75 11.25 0 3.75 7.5 
0 0 3.75 0 3.75 3.75 0 7.5 11.25 
0 11.25 11.25 0 11.25 15 0 11.25 22.5 
0 7.5 18.75 0 11.25 18.75 0 26.25 0 
0 30 3.75 0 26.25 3.75 0 26.25 7.5 
0 30 11.25 0 26.25 11.25 0 22.5 3.75 
0 18.75 3.75 0 18.75 0 0 26.25 15 
0 30 18.75 0 26.25 18.75 0 26.25 22.5 
0 30 26.25 0 22.5 18.75 0 18.75 15 
0 15 11.25 0 11.25 7.5 0 7.5 3.75 
0 3.75 0 0 11.25 3.75 0 11.25 0 
0 15 3.75 0 22.5 11.25 0 18.75 11.25 
0 18.75 7.5 26.25 26.25 30 30 26.25 30 
26.25 22.5 30 26.25 18.75 30 30 18.75 30 
26.25 15 30 22.5 18.75 30 18.75 15 30 
18.75 18.75 30 26.25 11.25 30 30 11.25 30 
26.25 7.5 30 26.25 3.75 30 30 3.75 30 
26.25 0 30 22.5 3.75 30 18.75 0 30 
18.75 3.75 30 15 3.75 30 11.25 0 30 
11.25 3.75 30 7.5 3.75 30 3.75 0 30 
3.75 3.75 30 11.25 7.5 30 11.25 11.25 30 
15 11.25 30 22.5 11.25 30 18.75 7.5 30 
18.75 11.25 30 0 26.25 30 3.75 30 30 
3.75 26.25 30 7.5 26.25 30 11.25 30 30 
11.25 26.25 30 3.75 22.5 30 3.75 18.75 30 
0 18.75 30 15 26.25 30 18.75 30 30 
18.75 26.25 30 22.5 26.25 30 26.25 30 30 
18.75 22.5 30 15 18.75 30 11.25 15 30 
7.5 11.25 30 3.75 7.5 30 0 3.75 30 
3.75 11.25 30 0 11.25 30 3.75 15 30 
11.25 22.5 30 11.25 18.75 30 7.5 18.75 30 
1.875 1.875 0 1.875 0 0 3.75 1.875 0 
5.625 1.875 0 5.625 0 0 7.5 1.875 0 
5.625 3.75 0 7.5 5.625 0 5.625 5.625 0 
9.375 1.875 0 9.375 0 0 11.25 1.875 0 
13.125 1.875 0 13.125 0 0 15 1.875 0 
13.125 3.75 0 15 5.625 0 13.125 5.625 0 
13.125 7.5 0 15 9.375 0 13.125 9.375 0 
13.125 11.25 0 15 13.125 0 13.125 13.125 0 
11.25 9.375 0 9.375 9.375 0 9.375 7.5 0 
9.375 3.75 0 11.25 5.625 0 9.375 5.625 0 
16.875 1.875 0 16.875 0 0 18.75 1.875 0 
20.625 1.875 0 20.625 0 0 22.5 1.875 0 
20.625 3.75 0 22.5 5.625 0 20.625 5.625 0 
24.375 1.875 0 24.375 0 0 26.25 1.875 0 
28.125 1.875 0 28.125 0 0 30 1.875 0 
28.125 3.75 0 30 5.625 0 28.125 5.625 0 
28.125 7.5 0 30 9.375 0 28.125 9.375 0 
28.125 11.25 0 30 13.125 0 28.125 13.125 0 
26.25 9.375 0 24.375 9.375 0 24.375 7.5 0 
24.375 3.75 0 26.25 5.625 0 24.375 5.625 0 
28.125 15 0 30 16.875 0 28.125 16.875 0 
28.125 18.75 0 30 20.625 0 28.125 20.625 0 
26.25 16.875 0 24.375 16.875 0 24.375 15 0 
28.125 22.5 0 30 24.375 0 28.125 24.375 0 
28.125 26.25 0 30 28.125 0 28.125 28.125 0 
26.25 24.375 0 24.375 24.375 0 24.375 22.5 0 
22.5 20.625 0 20.625 20.625 0 20.625 18.75 0 
18.75 16.875 0 16.875 16.875 0 16.875 15 0 
20.625 16.875 0 20.625 15 0 22.5 16.875 0 
26.25 20.625 0 24.375 20.625 0 24.375 18.75 0 
16.875 3.75 0 18.75 5.625 0 20.625 7.5 0 
16.875 5.625 0 16.875 7.5 0 22.5 9.375 0 
24.375 11.25 0 26.25 13.125 0 24.375 13.125 0 
22.5 13.125 0 20.625 13.125 0 18.75 13.125 0 
16.875 13.125 0 16.875 11.25 0 16.875 9.375 0 
20.625 9.375 0 20.625 11.25 0 18.75 9.375 0 
0 1.875 0 1.875 3.75 0 3.75 5.625 0 
5.625 7.5 0 1.875 5.625 0 1.875 7.5 0 
0 5.625 0 7.5 9.375 0 9.375 11.25 0 
11.25 13.125 0 13.125 15 0 9.375 13.125 0 
9.375 15 0 7.5 13.125 0 5.625 13.125 0 
5.625 15 0 3.75 13.125 0 1.875 13.125 0 
1.875 15 0 0 13.125 0 1.875 11.25 0 
0 9.375 0 1.875 9.375 0 5.625 9.375 0 
5.625 11.25 0 3.75 9.375 0 15 16.875 0 
16.875 18.75 0 18.75 20.625 0 20.625 22.5 0 
16.875 20.625 0 16.875 22.5 0 15 20.625 0 
22.5 24.375 0 24.375 26.25 0 26.25 28.125 0 
28.125 30 0 24.375 28.125 0 24.375 30 0 
22.5 28.125 0 20.625 28.125 0 20.625 30 0 
18.75 28.125 0 16.875 28.125 0 16.875 30 0 
15 28.125 0 16.875 26.25 0 15 24.375 0 
16.875 24.375 0 20.625 24.375 0 20.625 26.25 0 
18.75 24.375 0 13.125 28.125 0 13.125 30 0 
11.25 28.125 0 9.375 28.125 0 9.375 30 0 
7.5 28.125 0 9.375 26.25 0 7.5 24.375 0 
9.375 24.375 0 5.625 28.125 0 5.625 30 0 
3.75 28.125 0 1.875 28.125 0 1.875 30 0 
0 28.125 0 1.875 26.25 0 0 24.375 0 
1.875 24.375 0 1.875 22.5 0 0 20.625 0 
1.875 20.625 0 1.875 18.75 0 0 16.875 0 
1.875 16.875 0 3.75 20.625 0 5.625 20.625 0 
5.625 22.5 0 5.625 26.25 0 3.75 24.375 0 
5.625 24.375 0 13.125 16.875 0 13.125 18.75 0 
13.125 20.625 0 11.25 16.875 0 9.375 16.875 0 
13.125 22.5 0 13.125 24.375 0 13.125 26.25 0 
11.25 24.375 0 9.375 22.5 0 7.5 20.625 0 
5.625 18.75 0 3.75 16.875 0 5.625 16.875 0 
7.5 16.875 0 11.25 20.625 0 9.375 20.625 0 
9.375 18.75 0 28.125 0 28.125 30 0 28.125 
28.125 0 26.25 28.125 0 24.375 30 0 24.375 
28.125 0 22.5 26.25 0 24.375 24.375 0 22.5 
24.375 0 24.375 28.125 0 20.625 30 0 20.625 
28.125 0 18.75 28.125 0 16.875 30 0 16.875 
28.125 0 15 26.25 0 16.875 24.375 0 15 
24.375 0 16.875 22.5 0 16.875 20.625 0 15 
20.625 0 16.875 18.75 0 16.875 16.875 0 15 
16.875 0 16.875 20.625 0 18.75 20.625 0 20.625 
22.5 0 20.625 26.25 0 20.625 24.375 0 18.75 
24.375 0 20.625 28.125 0 13.125 30 0 13.125 
28.125 0 11.25 28.125 0 9.375 30 0 9.375 
28.125 0 7.5 26.25 0 9.375 24.375 0 7.5 
24.375 0 9.375 28.125 0 5.625 30 0 5.625 
28.125 0 3.75 28.125 0 1.875 30 0 1.875 
28.125 0 0 26.25 0 1.875 24.375 0 0 
24.375 0 1.875 22.5 0 1.875 20.625 0 0 
20.625 0 1.875 18.75 0 1.875 16.875 0 0 
16.875 0 1.875 20.625 0 3.75 20.625 0 5.625 
22.5 0 5.625 26.25 0 5.625 24.375 0 3.75 
24.375 0 5.625 15 0 1.875 13.125 0 0 
13.125 0 1.875 11.25 0 1.875 9.375 0 0 
9.375 0 1.875 13.125 0 3.75 13.125 0 5.625 
15 0 5.625 7.5 0 1.875 5.625 0 0 
5.625 0 1.875 3.75 0 1.875 1.875 0 0 
1.875 0 1.875 5.625 0 3.75 5.625 0 5.625 
7.5 0 5.625 9.375 0 7.5 9.375 0 9.375 
11.25 0 9.375 13.125 0 11.25 13.125 0 13.125 
15 0 13.125 13.125 0 9.375 15 0 9.375 
13.125 0 7.5 9.375 0 3.75 9.375 0 5.625 
11.25 0 5.625 26.25 0 13.125 24.375 0 11.25 
[...]
POINT_DATA 1734
SCALARS ID float
LOOKUP_TABLE default
0 1 2 3 4 5 6 7 0 
0 1 1 2 2 3 3 4 4 
5 5 6 6 7 7 1 0.5 1.5 
1.5 2.5 2.5 3 0.5 2 4.5 3.5 3 
5.5 1.5 4 4.5 2.5 4 5 6.5 3.5 
5.5 2 1.5 5 5 5.5 4.5 5.5 6.5 
0.5 0.25 0.75 1 0.75 1.25 1.25 1.75 1.5 
0.75 1.25 1.75 2.25 2 2.75 2.25 3.75 4 
2.75 1.75 2 0.75 1.5 0.25 1.25 3 4.25 
3.25 3.5 4.75 2.25 1 2.25 2 3.25 4.25 
4 5.25 4.5 5.75 4.75 1.25 2.5 3.75 5 
2.75 3 1.75 3.75 2.75 3.5 3.25 2.25 3 
4.25 5 5.25 4 4.75 5.5 6.25 5.75 6.75 
6 5.25 6.25 4.5 3.75 4.75 3 2.75 1 
1.75 2.25 4 3.25 4.25 6 2.5 0.75 5.5 
5.75 5.25 5 5.25 4.75 4.75 4.25 4.5 6.25 
6.75 6 5.75 6.25 5.25 4.75 0.25 0.125 0.375 
0.5 0.375 0.625 0.625 0.875 0.75 0.75 0.625 0.875 
1 0.875 1.125 1.125 1.375 1.25 1.375 1.625 1.5 
1.625 1.875 1.75 1.375 1.25 1.125 0.875 1.125 1 
0.375 0.625 0.875 1.125 1 1.375 1.125 1.375 1.625 
1.875 2.125 2 2.375 2.125 2.25 2.625 2.375 2.5 
2.875 2.625 2.125 1.875 1.75 1.5 1.875 1.625 4.375 
4.5 3.875 3.375 3.5 2.875 3.25 2.625 3.125 2.375 
2.5 1.875 1.375 1.5 0.875 1.25 0.625 1.125 1 
0.375 0.875 0.75 0.125 0.625 1.375 1.875 2 2.25 
1.625 2.125 3.5 4.125 3.625 3.75 4.375 3.875 3.125 
2.625 2.5 4 4.625 4.125 4.25 4.875 3.625 3 
2.375 1.75 1.125 0.5 1.625 1.5 2.125 3.375 2.875 
2.75 1.625 1.5 2.125 2.625 2.5 3.125 2.75 3.375 
2.875 3.625 3.5 4.125 4.625 4.5 5.125 4.75 5.375 
4.875 5 5.625 5.125 5.25 5.875 5.375 4.625 4.125 
4 3.75 4.375 3.875 1.125 1.75 2.375 3 1.875 
2 1.375 3.625 4.25 4.875 5.5 4.375 4.5 3.875 
3.375 3.5 2.875 2.375 2.5 1.875 2.25 1.625 2.125 
3.125 3.25 2.625 3.375 2.875 3.25 3.125 2.625 3 
3.625 4 4.125 2.875 2.375 2.75 2.625 2.125 2.5 
3.125 3.5 3.625 4.125 4.5 4.625 5.125 5.5 5.625 
4.75 4.875 4.375 3.375 3.75 3.875 3.5 3.875 4.25 
4.625 4.375 4.875 4.5 5 5.375 5.75 6.125 5.875 
6.375 6 6.125 6.625 6.25 6.375 6.875 6.5 5.875 
5.5 5.375 5.125 5.625 5.25 6.125 6.625 5.75 5.375 
5.875 5 4.875 4 4.375 4.625 5.125 4.25 3.875 
4.375 3.5 3.375 2.5 2.875 2.375 1.5 1.875 1.375 
0.5 0.875 2.25 2.625 3.125 4.125 3.25 3.625 2.625 
3.5 3.125 3.625 4.5 4.125 2.75 2.375 1.875 4.625 
5.5 5.125 5.625 6.5 4.75 3.875 3 2.125 1.25 
0.375 1.625 1.125 2 3.75 3.375 2.875 5.75 5.875 
5.625 5.5 5.625 5.375 5.375 5.125 5.25 5.25 5.375 
5.125 5 5.125 4.875 4.875 4.625 4.75 4.625 4.375 
4.5 4.375 4.125 4.25 4.625 4.75 4.875 5.125 4.875 
5 6.625 6.875 6.5 6.375 6.625 6.25 6.125 5.75 
5.875 6.125 6.375 6 5.875 6.125 5.625 5.375 5.125 
4.875 4.625 4.375 5 5.125 5.375 5.875 5.5 5.625 
0.125 0.0625 0.1875 0.25 0.1875 0.3125 0.3125 0.4375 0.375 
0.375 0.3125 0.4375 0.5 0.4375 0.5625 0.5625 0.6875 0.625 
0.6875 0.8125 0.75 0.8125 0.9375 0.875 0.6875 0.625 0.5625 
0.4375 0.5625 0.5 0.625 0.5625 0.6875 0.75 0.6875 0.8125 
0.8125 0.9375 0.875 0.875 0.8125 0.9375 1 0.9375 1.0625 
1.0625 1.1875 1.125 1.1875 1.3125 1.25 1.3125 1.4375 1.375 
1.1875 1.125 1.0625 0.9375 1.0625 1 1.4375 1.5625 1.5 
1.5625 1.6875 1.625 1.4375 1.375 1.3125 1.6875 1.8125 1.75 
1.8125 1.9375 1.875 1.6875 1.625 1.5625 1.4375 1.375 1.3125 
1.1875 1.125 1.0625 1.25 1.1875 1.3125 1.5625 1.5 1.4375 
0.6875 0.8125 0.9375 0.75 0.8125 1.0625 1.1875 1.3125 1.25 
1.1875 1.125 1.0625 1 0.9375 0.875 1 1.0625 0.9375 
0.1875 0.3125 0.4375 0.5625 0.5 0.6875 0.5625 0.6875 0.8125 
0.9375 1.0625 1 1.1875 1.0625 1.125 1.3125 1.1875 1.25 
1.4375 1.3125 1.0625 0.9375 0.875 0.75 0.9375 0.8125 1.1875 
1.3125 1.4375 1.5625 1.5 1.6875 1.5625 1.6875 1.8125 1.9375 
2.0625 2 2.1875 2.0625 2.125 2.3125 2.1875 2.25 2.4375 
2.3125 2.0625 1.9375 1.875 1.75 1.9375 1.8125 2.375 2.5625 
2.4375 2.5 2.6875 2.5625 2.3125 2.1875 2.125 2.625 2.8125 
2.6875 2.75 2.9375 2.8125 2.5625 2.4375 2.375 2.1875 2.0625 
2 1.8125 1.6875 1.625 1.9375 1.875 2.0625 2.4375 2.3125 
2.25 1.25 1.4375 1.625 1.3125 1.375 1.8125 2 2.1875 
2.0625 1.9375 1.8125 1.6875 1.5625 1.5 1.4375 1.6875 1.75 
1.5625 4.6875 4.75 4.4375 4.1875 4.25 3.9375 4.125 3.8125 
4.0625 3.6875 3.75 3.4375 3.1875 3.25 2.9375 3.125 2.8125 
3.0625 3 2.6875 2.9375 2.875 2.5625 2.8125 3.1875 3.4375 
3.5 3.625 3.3125 3.5625 2.6875 2.75 2.4375 2.1875 2.25 
1.9375 2.125 1.8125 2.0625 1.6875 1.75 1.4375 1.1875 1.25 
0.9375 1.125 0.8125 1.0625 1 0.6875 0.9375 0.875 0.5625 
0.8125 1.1875 1.4375 1.5 1.625 1.3125 1.5625 0.75 0.4375 
0.6875 0.625 0.3125 0.5625 0.9375 1.1875 1.25 0.5 0.1875 
0.4375 0.375 0.0625 0.3125 0.6875 0.9375 1 1.3125 1.5625 
1.625 1.9375 2.1875 2.25 1.6875 1.75 1.4375 0.8125 1.0625 
1.125 2.625 2.3125 2 2.5625 2.5 1.6875 1.375 1.0625 
1.3125 1.5625 1.8125 2.0625 2.3125 2.375 2.4375 1.9375 1.875 
2.1875 3.75 4.0625 3.8125 3.875 4.1875 3.9375 3.5625 3.3125 
3.25 4 4.3125 4.0625 4.125 4.4375 4.1875 3.8125 3.5625 
3.5 3.1875 2.9375 2.875 2.5625 2.3125 2.25 2.8125 2.75 
3.0625 3.6875 3.4375 3.375 4.25 4.5625 4.3125 4.375 4.6875 
4.4375 4.0625 3.8125 3.75 4.5 4.8125 4.5625 4.625 4.9375 
4.3125 4 3.6875 3.375 3.0625 2.75 3.3125 3.25 3.5625 
4.1875 3.9375 3.875 2.4375 2.125 1.8125 1.5 2.0625 2 
2.3125 1.1875 0.875 0.5625 0.25 0.8125 0.75 1.0625 1.3125 
1.25 1.5625 1.8125 1.75 2.0625 1.875 2.1875 1.9375 1.4375 
1.375 1.6875 3.9375 3.6875 3.4375 3.625 3.3125 3.1875 2.9375 
2.6875 2.625 2.5625 2.5 2.4375 2.375 2.6875 3 3.125 
2.8125 3.0625 1.3125 1.25 1.5625 1.8125 1.75 2.0625 1.875 
2.1875 1.9375 2.3125 2.25 2.5625 2.8125 2.75 3.0625 2.875 
3.1875 2.9375 3 3.3125 3.0625 3.125 3.4375 3.1875 2.8125 
2.5625 2.5 2.375 2.6875 2.4375 3.3125 3.25 3.5625 3.8125 
3.75 4.0625 3.875 4.1875 3.9375 4.3125 4.25 4.5625 4.8125 
4.75 5.0625 4.875 5.1875 4.9375 5 5.3125 5.0625 5.125 
5.4375 5.1875 4.8125 4.5625 4.5 4.375 4.6875 4.4375 5.25 
5.5625 5.3125 5.375 5.6875 5.4375 5.0625 4.8125 4.75 5.5 
5.8125 5.5625 5.625 5.9375 5.6875 5.3125 5.0625 5 4.6875 
4.4375 4.375 4.0625 3.8125 3.75 4.3125 4.25 4.5625 5.1875 
4.9375 4.875 3.375 3.6875 4 3.4375 3.5 4.3125 4.625 
4.9375 4.6875 4.4375 4.1875 3.9375 3.6875 3.625 3.5625 4.0625 
4.125 3.8125 1.0625 1.375 1.6875 2 1.4375 1.5 1.1875 
2.3125 2.625 2.9375 3.25 2.6875 2.75 2.4375 2.1875 2.25 
1.9375 1.6875 1.75 1.4375 1.625 1.3125 1.5625 2.0625 2.125 
1.8125 3.5625 3.875 4.1875 4.5 3.9375 4 3.6875 4.8125 
5.125 5.4375 5.75 5.1875 5.25 4.9375 4.6875 4.75 4.4375 
4.1875 4.25 3.9375 4.125 3.8125 4.0625 4.5625 4.625 4.3125 
3.6875 3.75 3.4375 3.1875 3.25 2.9375 3.125 2.8125 3.0625 
2.6875 2.75 2.4375 2.1875 2.25 1.9375 2.125 1.8125 2.0625 
2 1.6875 1.9375 1.875 1.5625 1.8125 2.1875 2.4375 2.5 
2.625 2.3125 2.5625 3.3125 3.375 3.4375 3.0625 2.8125 3.5 
3.5625 3.625 3.3125 3 2.6875 2.375 2.0625 2.3125 2.5625 
3.1875 2.9375 2.875 3.1875 2.9375 3.125 3.0625 2.8125 3 
3.3125 3.5 3.5625 2.9375 2.6875 2.875 2.8125 2.5625 2.75 
3.0625 3.25 3.3125 3.5625 3.75 3.8125 4.0625 4.25 4.3125 
3.875 3.9375 3.6875 3.1875 3.375 3.4375 2.6875 2.4375 2.625 
2.5625 2.3125 2.5 2.8125 3 3.0625 2.4375 2.1875 2.375 
2.3125 2.0625 2.25 2.5625 2.75 2.8125 3.0625 3.25 3.3125 
3.5625 3.75 3.8125 3.375 3.4375 3.1875 2.6875 2.875 2.9375 
4.0625 4.25 4.3125 4.5625 4.75 4.8125 4.375 4.4375 4.1875 
5.0625 5.25 5.3125 5.5625 5.75 5.8125 5.375 5.4375 5.1875 
5 5.0625 4.8125 4.625 4.6875 4.4375 4.5625 4.3125 4.5 
4.875 4.9375 4.6875 2.9375 3.125 3.3125 3.1875 3.4375 3.5 
3.6875 3.875 3.9375 4 4.0625 4.125 4.1875 3.9375 3.6875 
3.5625 3.8125 3.625 3.25 3.4375 3.625 3.8125 3.6875 3.9375 
3.75 4 4.1875 4.375 4.5625 4.4375 4.6875 4.5 4.5625 
4.8125 4.625 4.6875 4.9375 4.75 4.4375 4.25 4.1875 4.0625 
4.3125 4.125 4.75 4.9375 5.125 5.3125 5.1875 5.4375 5.25 
5.5 5.6875 5.875 6.0625 5.9375 6.1875 6 6.0625 6.3125 
6.125 6.1875 6.4375 6.25 5.9375 5.75 5.6875 5.5625 5.8125 
5.625 6.3125 6.5625 6.375 6.4375 6.6875 6.5 6.1875 6 
5.9375 6.5625 6.8125 6.625 6.6875 6.9375 6.75 6.4375 6.25 
6.1875 5.9375 5.75 5.6875 5.4375 5.25 5.1875 5.625 5.5625 
5.8125 6.3125 6.125 6.0625 4.8125 5.0625 5.3125 4.875 4.9375 
5.5625 5.8125 6.0625 5.875 5.6875 5.5 5.3125 5.125 5.0625 
5 5.375 5.4375 5.1875 6.5625 6.8125 6.375 6.1875 6.4375 
6 5.9375 5.5 5.6875 5.8125 6.0625 5.625 5.4375 5.6875 
5.25 5.1875 4.75 4.9375 4.6875 4.25 4.4375 4.1875 3.75 
3.9375 4.625 4.8125 5.0625 5.5625 5.125 5.3125 5.0625 5.3125 
4.875 4.6875 4.9375 4.5 4.4375 4 4.1875 4.3125 4.5625 
4.125 3.9375 4.1875 3.75 3.6875 3.25 3.4375 3.1875 2.75 
2.9375 2.6875 2.25 2.4375 3.125 3.3125 3.5625 4.0625 3.625 
3.8125 2.1875 1.75 1.9375 1.6875 1.25 1.4375 2.125 2.3125 
2.5625 1.1875 0.75 0.9375 0.6875 0.25 0.4375 1.125 1.3125 
1.5625 2 2.1875 2.4375 2.875 3.0625 3.3125 2.6875 2.9375 
2.5 1.625 1.8125 2.0625 4.8125 4.375 3.9375 4.5625 4.3125 
3.5 3.0625 2.625 2.8125 3 3.1875 3.375 3.5625 3.8125 
4.0625 3.6875 3.4375 3.875 2.8125 3.25 3.0625 3.3125 3.75 
3.5625 2.875 2.6875 2.4375 3.8125 4.25 4.0625 4.3125 4.75 
4.5625 3.875 3.6875 3.4375 3 2.8125 2.5625 2.125 1.9375 
1.6875 2.3125 2.0625 2.5 3.375 3.1875 2.9375 4.8125 5.25 
5.0625 5.3125 5.75 5.5625 4.875 4.6875 4.4375 5.8125 6.25 
6.0625 6.3125 6.75 5.875 5.4375 5 4.5625 4.125 3.6875 
4.3125 4.0625 4.5 5.375 5.1875 4.9375 3.25 2.8125 2.375 
1.9375 2.5625 2.3125 2.75 1.5 1.0625 0.625 0.1875 0.8125 
0.5625 1 1.1875 0.9375 1.375 1.5625 1.3125 1.75 1.8125 
2.25 2.0625 1.6875 1.4375 1.875 4.375 4.1875 4 3.9375 
3.5 3.8125 3.625 3.4375 3.1875 2.9375 2.6875 2.4375 2.1875 
2.625 3.0625 3.5625 3.125 3.3125 5.875 5.9375 5.8125 5.75 
5.8125 5.6875 5.6875 5.5625 5.625 5.625 5.6875 5.5625 5.5 
5.5625 5.4375 5.4375 5.3125 5.375 5.3125 5.1875 5.25 5.1875 
5.0625 5.125 5.3125 5.375 5.4375 5.5625 5.4375 5.5 5.375 
5.4375 5.3125 5.25 5.3125 5.1875 5.1875 5.0625 5.125 5.125 
5.1875 5.0625 5 5.0625 4.9375 4.9375 4.8125 4.875 4.8125 
4.6875 4.75 4.6875 4.5625 4.625 4.8125 4.875 4.9375 5.0625 
4.9375 5 4.5625 4.4375 4.5 4.4375 4.3125 4.375 4.5625 
4.625 4.6875 4.3125 4.1875 4.25 4.1875 4.0625 4.125 4.3125 
4.375 4.4375 4.5625 4.625 4.6875 4.8125 4.875 4.9375 4.75 
4.8125 4.6875 4.4375 4.5 4.5625 5.3125 5.1875 5.0625 5.25 
5.1875 4.9375 4.8125 4.6875 4.75 4.8125 4.875 4.9375 5 
5.0625 5.125 5 4.9375 5.0625 6.8125 6.9375 6.75 6.6875 
6.8125 6.625 6.5625 6.375 6.4375 6.5625 6.6875 6.5 6.4375 
6.5625 6.375 6.3125 6.125 6.1875 6.0625 5.875 5.9375 5.8125 
5.625 5.6875 6 6.0625 6.1875 6.4375 6.25 6.3125 6.3125 
6.4375 6.25 6.1875 6.3125 6.125 6.0625 5.875 5.9375 6.0625 
6.1875 6 5.9375 6.0625 5.8125 5.6875 5.5625 5.4375 5.3125 
5.1875 5.5 5.5625 5.6875 5.9375 5.75 5.8125 5.0625 4.9375 
4.8125 4.6875 5 5.0625 5.1875 4.5625 4.4375 4.3125 4.1875 
4.5 4.5625 4.6875 4.875 4.9375 5.0625 5.25 5.3125 5.4375 
5.1875 5.3125 5.125 4.75 4.8125 4.9375 6.1875 6 5.8125 
6.0625 5.9375 5.625 5.4375 5.25 5.3125 5.375 5.4375 5.5 
5.5625 5.6875 5.8125 5.6875 5.5625 5.75 
NORMALS Normals float
0 0 1 0 0 1 0 0 1 
0 0 1 0 1 0 0 1 0 
-1 0 0 0 -1 0 0 1 0 
1 0 0 0 1 0 -1 0 0 
-1 0 0 0 -1 0 0 -1 0 
1 0 0 1 0 0 0 0 -1 
-1 0 0 0 0 -1 0 -1 0 
0 0 -1 1 0 0 0 0 -1 
0 0 1 0 0 1 0 0 1 
0 0 1 0 0 1 0 1 0 
0 1 0 0 1 0 0 1 0 
0 1 0 -1 0 0 -1 0 0 
-1 0 0 -1 0 0 -1 0 0 
0 -1 0 0 -1 0 0 -1 0 
0 -1 0 0 -1 0 1 0 0 
1 0 0 1 0 0 1 0 0 
1 0 0 0 0 -1 0 0 -1 
0 0 -1 0 0 -1 0 0 -1 
0 0 1 0 0 1 0 0 1 
0 0 1 0 0 1 0 0 1 
0 0 1 0 0 1 0 0 1 
0 0 1 0 0 1 0 0 1 
0 0 1 0 0 1 0 0 1 
0 0 1 0 1 0 0 1 0 
0 1 0 0 1 0 0 1 0 
0 1 0 0 1 0 0 1 0 
0 1 0 0 1 0 0 1 0 
0 1 0 0 1 0 0 1 0 
0 1 0 0 1 0 -1 0 0 
-1 0 0 -1 0 0 -1 0 0 
-1 0 0 -1 0 0 -1 0 0 
-1 0 0 -1 0 0 -1 0 0 
-1 0 0 -1 0 0 -1 0 0 
-1 0 0 -1 0 0 -1 0 0 
0 -1 0 0 -1 0 0 -1 0 
0 -1 0 0 -1 0 0 -1 0 
0 -1 0 0 -1 0 0 -1 0 
0 -1 0 0 -1 0 0 -1 0 
0 -1 0 0 -1 0 0 -1 0 
0 -1 0 1 0 0 1 0 0 
1 0 0 1 0 0 1 0 0 
1 0 0 1 0 0 1 0 0 
1 0 0 1 0 0 1 0 0 
1 0 0 1 0 0 1 0 0 
1 0 0 1 0 0 0 0 -1 
0 0 -1 0 0 -1 0 0 -1 
0 0 -1 0 0 -1 0 0 -1 
0 0 -1 0 0 -1 0 0 -1 
0 0 -1 0 0 -1 0 0 -1 
0 0 -1 0 0 -1 0 0 -1 
0 0 1 0 0 1 0 0 1 
0 0 1 0 0 1 0 0 1 
0 0 1 0 0 1 0 0 1 
0 0 1 0 0 1 0 0 1 
0 0 1 0 0 1 0 0 1 
0 0 1 0 0 1 0 0 1 
0 0 1 0 0 1 0 0 1 
0 0 1 0 0 1 0 0 1 
0 0 1 0 0 1 0 0 1 
0 0 1 0 0 1 0 0 1 
0 0 1 0 0 1 0 0 1 
0 0 1 0 0 1 0 0 1 
0 0 1 0 0 1 0 0 1 
0 0 1 0 0 1 0 0 1 
0 0 1 0 0 1 0 0 1 
0 0 1 0 0 1 0 0 1 
0 0 1 0 0 1 0 0 1 
0 0 1 0 0 1 0 0 1 
0 0 1 0 0 1 0 1 0 
0 1 0 0 1 0 0 1 0 
0 1 0 0 1 0 0 1 0 
0 1 0 0 1 0 0 1 0 
0 1 0 0 1 0 0 1 0 
0 1 0 0 1 0 0 1 0 
0 1 0 0 1 0 0 1 0 
0 1 0 0 1 0 0 1 0 
0 1 0 0 1 0 0 1 0 
0 1 0 0 1 0 0 1 0 
0 1 0 0 1 0 0 1 0 
0 1 0 0 1 0 0 1 0 
0 1 0 0 1 0 0 1 0 
0 1 0 0 1 0 0 1 0 
0 1 0 0 1 0 0 1 0 
0 1 0 0 1 0 0 1 0 
0 1 0 0 1 0 0 1 0 
0 1 0 0 1 0 0 1 0 
0 1 0 0 1 0 0 1 0 
0 1 0 -1 0 0 -1 0 0 
-1 0 0 -1 0 0 -1 0 0 
-1 0 0 -1 0 0 -1 0 0 
-1 0 0 -1 0 0 -1 0 0 
-1 0 0 -1 0 0 -1 0 0 
-1 0 0 -1 0 0 -1 0 0 
-1 0 0 -1 0 0 -1 0 0 
-1 0 0 -1 0 0 -1 0 0 
-1 0 0 -1 0 0 -1 0 0 
-1 0 0 -1 0 0 -1 0 0 
-1 0 0 -1 0 0 -1 0 0 
-1 0 0 -1 0 0 -1 0 0 
-1 0 0 -1 0 0 -1 0 0 
-1 0 0 -1 0 0 -1 0 0 
-1 0 0 -1 0 0 -1 0 0 
-1 0 0 -1 0 0 -1 0 0 
-1 0 0 -1 0 0 -1 0 0 
-1 0 0 -1 0 0 -1 0 0 
-1 0 0 -1 0 0 -1 0 0 
0 -1 0 0 -1 0 0 -1 0 
0 -1 0 0 -1 0 0 -1 0 
0 -1 0 0 -1 0 0 -1 0 
0 -1 0 0 -1 0 0 -1 0 
0 -1 0 0 -1 0 0 -1 0 
0 -1 0 0 -1 0 0 -1 0 
0 -1 0 0 -1 0 0 -1 0 
0 -1 0 0 -1 0 0 -1 0 
0 -1 0 0 -1 0 0 -1 0 
0 -1 0 0 -1 0 0 -1 0 
0 -1 0 0 -1 0 0 -1 0 
0 -1 0 0 -1 0 0 -1 0 
0 -1 0 0 -1 0 0 -1 0 
0 -1 0 0 -1 0 0 -1 0 
0 -1 0 0 -1 0 0 -1 0 
0 -1 0 0 -1 0 0 -1 0 
0 -1 0 0 -1 0 0 -1 0 
0 -1 0 0 -1 0 0 -1 0 
0 -1 0 0 -1 0 1 0 0 
1 0 0 1 0 0 1 0 0 
1 0 0 1 0 0 1 0 0 
1 0 0 1 0 0 1 0 0 
1 0 0 1 0 0 1 0 0 
1 0 0 1 0 0 1 0 0 
1 0 0 1 0 0 1 0 0 
1 0 0 1 0 0 1 0 0 
1 0 0 1 0 0 1 0 0 
1 0 0 1 0 0 1 0 0 
1 0 0 1 0 0 1 0 0 
1 0 0 1 0 0 1 0 0 
1 0 0 1 0 0 1 0 0 
1 0 0 1 0 0 1 0 0 
1 0 0 1 0 0 1 0 0 
1 0 0 1 0 0 1 0 0 
1 0 0 1 0 0 1 0 0 
1 0 0 1 0 0 1 0 0 
1 0 0 1 0 0 1 0 0 
1 0 0 0 0 -1 0 0 -1 
0 0 -1 0 0 -1 0 0 -1 
0 0 -1 0 0 -1 0 0 -1 
0 0 -1 0 0 -1 0 0 -1 
0 0 -1 0 0 -1 0 0 -1 
0 0 -1 0 0 -1 0 0 -1 
0 0 -1 0 0 -1 0 0 -1 
0 0 -1 0 0 -1 0 0 -1 
0 0 -1 0 0 -1 0 0 -1 
0 0 -1 0 0 -1 0 0 -1 
0 0 -1 0 0 -1 0 0 -1 
0 0 -1 0 0 -1 0 0 -1 
0 0 -1 0 0 -1 0 0 -1 
0 0 -1 0 0 -1 0 0 -1 
0 0 -1 0 0 -1 0 0 -1 
0 0 -1 0 0 -1 0 0 -1 
0 0 -1 0 0 -1 0 0 -1 
0 0 -1 0 0 -1 0 0 -1 
0 0 -1 0 0 -1 0 0 -1 
0 0 1 0 0 1 0 0 1 
0 0 1 0 0 1 0 0 1 
0 0 1 0 0 1 0 0 1 
0 0 1 0 0 1 0 0 1 
0 0 1 0 0 1 0 0 1 
0 0 1 0 0 1 0 0 1 
0 0 1 0 0 1 0 0 1 
0 0 1 0 0 1 0 0 1 
0 0 1 0 0 1 0 0 1 
0 0 1 0 0 1 0 0 1 
0 0 1 0 0 1 0 0 1 
0 0 1 0 0 1 0 0 1 
0 0 1 0 0 1 0 0 1 
0 0 1 0 0 1 0 0 1 
0 0 1 0 0 1 0 0 1 
0 0 1 0 0 1 0 0 1 
0 0 1 0 0 1 0 0 1 
0 0 1 0 0 1 0 0 1 
0 0 1 0 0 1 0 0 1 
0 0 1 0 0 1 0 0 1 
0 0 1 0 0 1 0 0 1 
0 0 1 0 0 1 0 0 1 
0 0 1 0 0 1 0 0 1 
0 0 1 0 0 1 0 0 1 
0 0 1 0 0 1 0 0 1 
0 0 1 0 0 1 0 0 1 
0 0 1 0 0 1 0 0 1 
0 0 1 0 0 1 0 0 1 
0 0 1 0 0 1 0 0 1 
0 0 1 0 0 1 0 0 1 
0 0 1 0 0 1 0 0 1 
0 0 1 0 0 1 0 0 1 
0 0 1 0 0 1 0 0 1 
0 0 1 0 0 1 0 0 1 
0 0 1 0 0 1 0 0 1 
0 0 1 0 0 1 0 0 1 
0 0 1 0 0 1 0 0 1 
0 0 1 0 0 1 0 0 1 
0 0 1 0 0 1 0 0 1 
0 0 1 0 0 1 0 0 1 
0 0 1 0 0 1 0 0 1 
0 0 1 0 0 1 0 0 1 
0 0 1 0 0 1 0 0 1 
0 0 1 0 0 1 0 0 1 
0 0 1 0 0 1 0 0 1 
0 0 1 0 0 1 0 0 1 
0 0 1 0 0 1 0 0 1 
0 0 1 0 0 1 0 0 1 
0 0 1 0 0 1 0 0 1 
0 0 1 0 0 1 0 0 1 
0 0 1 0 0 1 0 0 1 
0 0 1 0 0 1 0 0 1 
0 0 1 0 0 1 0 0 1 
0 0 1 0 0 1 0 0 1 
0 0 1 0 0 1 0 0 1 
0 0 1 0 0 1 0 0 1 
0 0 1 0 0 1 0 0 1 
0 0 1 0 0 1 0 0 1 
0 0 1 0 0 1 0 0 1 
0 0 1 0 0 1 0 0 1 
0 0 1 0 0 1 0 0 1 
0 0 1 0 0 1 0 0 1 
0 0 1 0 0 1 0 0 1 
0 0 1 0 0 1 0 0 1 
0 0 1 0 0 1 0 0 1 
0 0 1 0 0 1 0 0 1 
0 0 1 0 0 1 0 0 1 
0 0 1 0 0 1 0 0 1 
0 0 1 0 0 1 0 0 1 
0 0 1 0 1 0 0 1 0 
0 1 0 0 1 0 0 1 0 
0 1 0 0 1 0 0 1 0 
0 1 0 0 1 0 0 1 0 
0 1 0 0 1 0 0 1 0 
0 1 0 0 1 0 0 1 0 
0 1 0 0 1 0 0 1 0 
0 1 0 0 1 0 0 1 0 
0 1 0 0 1 0 0 1 0 
0 1 0 0 1 0 0 1 0 
0 1 0 0 1 0 0 1 0 
0 1 0 0 1 0 0 1 0 
0 1 0 0 1 0 0 1 0 
0 1 0 0 1 0 0 1 0 
0 1 0 0 1 0 0 1 0 
0 1 0 0 1 0 0 1 0 
0 1 0 0 1 0 0 1 0 
0 1 0 0 1 0 0 1 0 
0 1 0 0 1 0 0 1 0 
0 1 0 0 1 0 0 1 0 
0 1 0 0 1 0 0 1 0 
0 1 0 0 1 0 0 1 0 
0 1 0 0 1 0 0 1 0 
0 1 0 0 1 0 0 1 0 
0 1 0 0 1 0 0 1 0 
0 1 0 0 1 0 0 1 0 
0 1 0 0 1 0 0 1 0 
0 1 0 0 1 0 0 1 0 
0 1 0 0 1 0 0 1 0 
0 1 0 0 1 0 0 1 0 
0 1 0 0 1 0 0 1 0 
0 1 0 0 1 0 0 1 0 
0 1 0 0 1 0 0 1 0 
0 1 0 0 1 0 0 1 0 
0 1 0 0 1 0 0 1 0 
0 1 0 0 1 0 0 1 0 
0 1 0 0 1 0 0 1 0 
0 1 0 0 1 0 0 1 0 
0 1 0 0 1 0 0 1 0 
0 1 0 0 1 0 0 1 0 
0 1 0 0 1 0 0 1 0 
0 1 0 0 1 0 0 1 0 
0 1 0 0 1 0 0 1 0 
0 1 0 0 1 0 0 1 0 
0 1 0 0 1 0 0 1 0 
0 1 0 0 1 0 0 1 0 
0 1 0 0 1 0 0 1 0 
0 1 0 0 1 0 0 1 0 
0 1 0 0 1 0 0 1 0 
0 1 0 0 1 0 0 1 0 
0 1 0 0 1 0 0 1 0 
0 1 0 0 1 0 0 1 0 
0 1 0 0 1 0 0 1 0 
0 1 0 0 1 0 0 1 0 
0 1 0 0 1 0 0 1 0 
0 1 0 0 1 0 0 1 0 
0 1 0 0 1 0 0 1 0 
0 1 0 0 1 0 0 1 0 
0 1 0 0 1 0 0 1 0 
0 1 0 0 1 0 0 1 0 
0 1 0 0 1 0 0 1 0 
0 1 0 0 1 0 0 1 0 
0 1 0 0 1 0 0 1 0 
0 1 0 0 1 0 0 1 0 
0 1 0 0 1 0 0 1 0 
0 1 0 0 1 0 0 1 0 
0 1 0 0 1 0 0 1 0 
0 1 0 0 1 0 0 1 0 
0 1 0 0 1 0 0 1 0 
0 1 0 0 1 0 -1 0 0 
-1 0 0 -1 0 0 -1 0 0 
-1 0 0 -1 0 0 -1 0 0 
-1 0 0 -1 0 0 -1 0 0 
-1 0 0 -1 0 0 -1 0 0 
-1 0 0 -1 0 0 -1 0 0 
-1 0 0 -1 0 0 -1 0 0 
-1 0 0 -1 0 0 -1 0 0 
-1 0 0 -1 0 0 -1 0 0 
-1 0 0 -1 0 0 -1 0 0 
-1 0 0 -1 0 0 -1 0 0 
-1 0 0 -1 0 0 -1 0 0 
-1 0 0 -1 0 0 -1 0 0 
-1 0 0 -1 0 0 -1 0 0 
-1 0 0 -1 0 0 -1 0 0 
-1 0 0 -1 0 0 -1 0 0 
-1 0 0 -1 0 0 -1 0 0 
-1 0 0 -1 0 0 -1 0 0 
-1 0 0 -1 0 0 -1 0 0 
-1 0 0 -1 0 0 -1 0 0 
-1 0 0 -1 0 0 -1 0 0 
-1 0 0 -1 0 0 -1 0 0 
-1 0 0 -1 0 0 -1 0 0 
-1 0 0 -1 0 0 -1 0 0 
-1 0 0 -1 0 0 -1 0 0 
-1 0 0 -1 0 0 -1 0 0 
-1 0 0 -1 0 0 -1 0 0 
-1 0 0 -1 0 0 -1 0 0 
-1 0 0 -1 0 0 -1 0 0 
-1 0 0 -1 0 0 -1 0 0 
-1 0 0 -1 0 0 -1 0 0 
-1 0 0 -1 0 0 -1 0 0 
-1 0 0 -1 0 0 -1 0 0 
-1 0 0 -1 0 0 -1 0 0 
-1 0 0 -1 0 0 -1 0 0 
-1 0 0 -1 0 0 -1 0 0 
-1 0 0 -1 0 0 -1 0 0 
-1 0 0 -1 0 0 -1 0 0 
-1 0 0 -1 0 0 -1 0 0 
-1 0 0 -1 0 0 -1 0 0 
-1 0 0 -1 0 0 -1 0 0 
-1 0 0 -1 0 0 -1 0 0 
-1 0 0 -1 0 0 -1 0 0 
-1 0 0 -1 0 0 -1 0 0 
-1 0 0 -1 0 0 -1 0 0 
-1 0 0 -1 0 0 -1 0 0 
-1 0 0 -1 0 0 -1 0 0 
-1 0 0 -1 0 0 -1 0 0 
-1 0 0 -1 0 0 -1 0 0 
-1 0 0 -1 0 0 -1 0 0 
-1 0 0 -1 0 0 -1 0 0 
-1 0 0 -1 0 0 -1 0 0 
-1 0 0 -1 0 0 -1 0 0 
-1 0 0 -1 0 0 -1 0 0 
-1 0 0 -1 0 0 -1 0 0 
-1 0 0 -1 0 0 -1 0 0 
-1 0 0 -1 0 0 -1 0 0 
-1 0 0 -1 0 0 -1 0 0 
-1 0 0 -1 0 0 -1 0 0 
-1 0 0 -1 0 0 -1 0 0 
-1 0 0 -1 0 0 -1 0 0 
-1 0 0 -1 0 0 -1 0 0 
-1 0 0 -1 0 0 -1 0 0 
-1 0 0 -1 0 0 -1 0 0 
-1 0 0 -1 0 0 -1 0 0 
-1 0 0 -1 0 0 -1 0 0 
-1 0 0 -1 0 0 -1 0 0 
-1 0 0 -1 0 0 -1 0 0 
-1 0 0 -1 0 0 -1 0 0 
-1 0 0 -1 0 0 -1 0 0 
0 -1 0 0 -1 0 0 -1 0 
0 -1 0 0 -1 0 0 -1 0 
0 -1 0 0 -1 0 0 -1 0 
0 -1 0 0 -1 0 0 -1 0 
0 -1 0 0 -1 0 0 -1 0 
0 -1 0 0 -1 0 0 -1 0 
0 -1 0 0 -1 0 0 -1 0 
0 -1 0 0 -1 0 0 -1 0 
0 -1 0 0 -1 0 0 -1 0 
0 -1 0 0 -1 0 0 -1 0 
0 -1 0 0 -1 0 0 -1 0 
0 -1 0 0 -1 0 0 -1 0 
0 -1 0 0 -1 0 0 -1 0 
0 -1 0 0 -1 0 0 -1 0 
0 -1 0 0 -1 0 0 -1 0 
0 -1 0 0 -1 0 0 -1 0 
0 -1 0 0 -1 0 0 -1 0 
0 -1 0 0 -1 0 0 -1 0 
0 -1 0 0 -1 0 0 -1 0 
0 -1 0 0 -1 0 0 -1 0 
0 -1 0 0 -1 0 0 -1 0 
0 -1 0 0 -1 0 0 -1 0 
0 -1 0 0 -1 0 0 -1 0 
0 -1 0 0 -1 0 0 -1 0 
0 -1 0 0 -1 0 0 -1 0 
0 -1 0 0 -1 0 0 -1 0 
0 -1 0 0 -1 0 0 -1 0 
0 -1 0 0 -1 0 0 -1 0 
0 -1 0 0 -1 0 0 -1 0 
0 -1 0 0 -1 0 0 -1 0 
0 -1 0 0 -1 0 0 -1 0 
0 -1 0 0 -1 0 0 -1 0 
0 -1 0 0 -1 0 0 -1 0 
0 -1 0 0 -1 0 0 -1 0 
0 -1 0 0 -1 0 0 -1 0 
0 -1 0 0 -1 0 0 -1 0 
0 -1 0 0 -1 0 0 -1 0 
0 -1 0 0 -1 0 0 -1 0 
0 -1 0 0 -1 0 0 -1 0 
0 -1 0 0 -1 0 0 -1 0 
0 -1 0 0 -1 0 0 -1 0 
0 -1 0 0 -1 0 0 -1 0 
0 -1 0 0 -1 0 0 -1 0 
0 -1 0 0 -1 0 0 -1 0 
0 -1 0 0 -1 0 0 -1 0 
0 -1 0 0 -1 0 0 -1 0 
0 -1 0 0 -1 0 0 -1 0 
0 -1 0 0 -1 0 0 -1 0 
0 -1 0 0 -1 0 0 -1 0 
0 -1 0 0 -1 0 0 -1 0 
0 -1 0 0 -1 0 0 -1 0 
0 -1 0 0 -1 0 0 -1 0 
0 -1 0 0 -1 0 0 -1 0 
0 -1 0 0 -1 0 0 -1 0 
0 -1 0 0 -1 0 0 -1 0 
0 -1 0 0 -1 0 0 -1 0 
0 -1 0 0 -1 0 0 -1 0 
0 -1 0 0 -1 0 0 -1 0 
0 -1 0 0 -1 0 0 -1 0 
0 -1 0 0 -1 0 0 -1 0 
0 -1 0 0 -1 0 0 -1 0 
0 -1 0 0 -1 0 0 -1 0 
0 -1 0 0 -1 0 0 -1 0 
0 -1 0 0 -1 0 0 -1 0 
0 -1 0 0 -1 0 0 -1 0 
0 -1 0 0 -1 0 0 -1 0 
0 -1 0 0 -1 0 0 -1 0 
0 -1 0 0 -1 0 0 -1 0 
0 -1 0 0 -1 0 0 -1 0 
0 -1 0 1 0 0 1 0 0 
1 0 0 1 0 0 1 0 0 
1 0 0 1 0 0 1 0 0 
1 0 0 1 0 0 1 0 0 
1 0 0 1 0 0 1 0 0 
1 0 0 1 0 0 1 0 0 
1 0 0 1 0 0 1 0 0 
1 0 0 1 0 0 1 0 0 
1 0 0 1 0 0 1 0 0 
1 0 0 1 0 0 1 0 0 
1 0 0 1 0 0 1 0 0 
1 0 0 1 0 0 1 0 0 
1 0 0 1 0 0 1 0 0 
1 0 0 1 0 0 1 0 0 
1 0 0 1 0 0 1 0 0 
1 0 0 1 0 0 1 0 0 
1 0 0 1 0 0 1 0 0 
1 0 0 1 0 0 1 0 0 
1 0 0 1 0 0 1 0 0 
1 0 0 1 0 0 1 0 0 
1 0 0 1 0 0 1 0 0 
1 0 0 1 0 0 1 0 0 
1 0 0 1 0 0 1 0 0 
1 0 0 1 0 0 1 0 0 
1 0 0 1 0 0 1 0 0 