# vtk DataFile Version 3.0
vtk output
ASCII
DATASET POLYDATA
POINTS 24 float
0 0 0 30 0 0 30 30 0 
0 30 0 0 0 30 30 0 30 
30 30 30 0 30 30 0 0 0 
0 0 0 30 0 0 30 0 0 
30 30 0 30 30 0 0 30 0 
0 30 0 0 0 30 0 0 30 
30 0 30 30 0 30 30 30 30 
30 30 30 0 30 30

POLYGONS 12 48
3 0 1 2 
3 0 2 3 
3 5 10 8 
3 4 5 8 
3 11 18 6 
3 11 6 12 
3 14 13 20 
3 14 20 7 
3 22 16 9 
3 15 22 9 
3 21 19 17 
3 23 21 17 

POINT_DATA 24
SCALARS ID float
LOOKUP_TABLE default
0 1 2 3 4 5 6 7 0 
0 1 1 2 2 3 3 4 4 
5 5 6 6 7 7 
NORMALS Normals float
0 0 1 0 0 1 0 0 1 
0 0 1 0 1 0 0 1 0 
-1 0 0 0 -1 0 0 1 0 
1 0 0 0 1 0 -1 0 0 
-1 0 0 0 -1 0 0 -1 0 
1 0 0 1 0 0 0 0 -1 
-1 0 0 0 0 -1 0 -1 0 
0 0 -1 1 0 0 0 0 -1 
FIELD FieldData 4
FaceA 1 24 int
0 0 0 0 1 1 1 1 0 0 0 0
0 0 0 0 1 1 1 1 1 1 1 1
FaceB 1 24 int
1 1 1 1 0 0 0 0 1 1 1 1 
1 1 1 1 0 0 0 0 0 0 0 0
FaceC 1 24 int
0 1 1 0 0 1 1 0 0 0 1 1 
1 1 0 0 0 0 1 1 1 1 0 0 
FaceD 1 24 int
0 1 2 3 0 1 2 3 0 0 1 1 
2 2 3 3 0 0 1 1 2 2 3 3 
