# vtk DataFile Version 3.0
vtk output
ASCII
DATASET POLYDATA
POINTS 150 float
0 0 0 30 0 0 30 30 0 
0 30 0 0 0 30 30 0 30 
30 30 30 0 30 30 0 0 0 
0 0 0 30 0 0 30 0 0 
30 30 0 30 30 0 0 30 0 
0 30 0 0 0 30 0 0 30 
30 0 30 30 0 30 30 30 30 
30 30 30 0 30 30 0 30 30 
15 15 0 15 0 0 30 15 0 
0 15 0 15 30 0 15 0 15 
30 0 15 15 0 0 0 0 15 
15 0 30 30 15 15 30 0 15 
30 15 30 30 15 0 30 30 15 
15 30 15 15 30 0 30 30 15 
0 30 15 15 30 30 0 15 15 
0 15 30 0 0 15 0 15 0 
0 30 15 15 15 30 30 15 30 
15 0 30 0 15 30 15 30 30 
7.5 7.5 0 7.5 0 0 15 7.5 0 
22.5 7.5 0 22.5 0 0 30 7.5 0 
22.5 15 0 30 22.5 0 22.5 22.5 0 
0 7.5 0 7.5 15 0 15 22.5 0 
22.5 30 0 7.5 22.5 0 7.5 30 0 
0 22.5 0 22.5 0 22.5 30 0 22.5 
22.5 0 15 22.5 0 7.5 30 0 7.5 
22.5 0 0 15 0 7.5 7.5 0 0 
7.5 0 7.5 0 0 22.5 7.5 0 30 
7.5 0 22.5 15 0 22.5 22.5 0 30 
7.5 0 15 0 0 7.5 30 7.5 7.5 
30 0 7.5 30 7.5 15 30 7.5 22.5 
30 0 22.5 30 7.5 30 30 15 22.5 
30 22.5 30 30 22.5 22.5 30 7.5 0 
30 15 7.5 30 22.5 15 30 30 22.5 
30 22.5 7.5 30 30 7.5 30 22.5 0 
7.5 30 7.5 7.5 30 0 15 30 7.5 
22.5 30 7.5 22.5 30 0 30 30 7.5 
22.5 30 15 30 30 22.5 22.5 30 22.5 
0 30 7.5 7.5 30 15 15 30 22.5 
22.5 30 30 7.5 30 22.5 7.5 30 30 
0 30 22.5 0 22.5 22.5 0 22.5 30 
0 15 22.5 0 7.5 22.5 0 7.5 30 
0 0 22.5 0 7.5 15 0 0 7.5 
0 7.5 7.5 0 22.5 0 0 30 7.5 
0 22.5 7.5 0 22.5 15 0 30 22.5 
0 15 7.5 0 7.5 0 22.5 22.5 30 
30 22.5 30 22.5 15 30 22.5 7.5 30 
30 7.5 30 22.5 0 30 15 7.5 30 
7.5 0 30 7.5 7.5 30 0 22.5 30 
7.5 30 30 7.5 22.5 30 15 22.5 30 
22.5 30 30 7.5 15 30 0 7.5 30 

POLYGONS 192 768
3 0 55 54 
3 55 25 56 
3 56 24 54 
3 55 56 54 
3 25 58 57 
3 58 1 59 
3 59 26 57 
3 58 59 57 
3 26 61 60 
3 61 2 62 
3 62 24 60 
3 61 62 60 
3 25 57 56 
3 57 26 60 
3 60 24 56 
3 57 60 56 
3 0 54 63 
3 54 24 64 
3 64 27 63 
3 54 64 63 
3 24 62 65 
3 62 2 66 
3 66 28 65 
3 62 66 65 
3 28 68 67 
3 68 3 69 
3 69 27 67 
3 68 69 67 
3 24 65 64 
3 65 28 67 
3 67 27 64 
3 65 67 64 
3 5 71 70 
3 71 30 72 
3 72 29 70 
3 71 72 70 
3 30 74 73 
3 74 10 75 
3 75 31 73 
3 74 75 73 
3 31 77 76 
3 77 8 78 
3 78 29 76 
3 77 78 76 
3 30 73 72 
3 73 31 76 
3 76 29 72 
3 73 76 72 
3 4 80 79 
3 80 33 81 
3 81 32 79 
3 80 81 79 
3 33 83 82 
3 83 5 70 
3 70 29 82 
3 83 70 82 
3 29 78 84 
3 78 8 85 
3 85 32 84 
3 78 85 84 
3 33 82 81 
3 82 29 84 
3 84 32 81 
3 82 84 81 
3 11 87 86 
3 87 35 88 
3 88 34 86 
3 87 88 86 
3 35 90 89 
3 90 18 91 
3 91 36 89 
3 90 91 89 
3 36 93 92 
3 93 6 94 
3 94 34 92 
3 93 94 92 
3 35 89 88 
3 89 36 92 
3 92 34 88 
3 89 92 88 
3 11 86 95 
3 86 34 96 
3 96 37 95 
3 86 96 95 
3 34 94 97 
3 94 6 98 
3 98 38 97 
3 94 98 97 
3 38 100 99 
3 100 12 101 
3 101 37 99 
3 100 101 99 
3 34 97 96 
3 97 38 99 
3 99 37 96 
3 97 99 96 
3 14 103 102 
3 103 40 104 
3 104 39 102 
3 103 104 102 
3 40 106 105 
3 106 13 107 
3 107 41 105 
3 106 107 105 
3 41 109 108 
3 109 20 110 
3 110 39 108 
3 109 110 108 
3 40 105 104 
3 105 41 108 
3 108 39 104 
3 105 108 104 
3 14 102 111 
3 102 39 112 
3 112 42 111 
3 102 112 111 
3 39 110 113 
3 110 20 114 
3 114 43 113 
3 110 114 113 
3 43 116 115 
3 116 7 117 
3 117 42 115 
3 116 117 115 
3 39 113 112 
3 113 43 115 
3 115 42 112 
3 113 115 112 
3 22 119 118 
3 119 45 120 
3 120 44 118 
3 119 120 118 
3 45 122 121 
3 122 16 123 
3 123 46 121 
3 122 123 121 
3 46 125 124 
3 125 9 126 
3 126 44 124 
3 125 126 124 
3 45 121 120 
3 121 46 124 
3 124 44 120 
3 121 124 120 
3 15 128 127 
3 128 48 129 
3 129 47 127 
3 128 129 127 
3 48 131 130 
3 131 22 118 
3 118 44 130 
3 131 118 130 
3 44 126 132 
3 126 9 133 
3 133 47 132 
3 126 133 132 
3 48 130 129 
3 130 44 132 
3 132 47 129 
3 130 132 129 
3 21 135 134 
3 135 50 136 
3 136 49 134 
3 135 136 134 
3 50 138 137 
3 138 19 139 
3 139 51 137 
3 138 139 137 
3 51 141 140 
3 141 17 142 
3 142 49 140 
3 141 142 140 
3 50 137 136 
3 137 51 140 
3 140 49 136 
3 137 140 136 
3 23 144 143 
3 144 53 145 
3 145 52 143 
3 144 145 143 
3 53 147 146 
3 147 21 134 
3 134 49 146 
3 147 134 146 
3 49 142 148 
3 142 17 149 
3 149 52 148 
3 142 149 148 
3 53 146 145 
3 146 49 148 
3 148 52 145 
3 146 148 145 

POINT_DATA 150
SCALARS ID float
LOOKUP_TABLE default
0 1 2 3 4 5 6 7 0 
0 1 1 2 2 3 3 4 4 
5 5 6 6 7 7 1 0.5 1.5 
1.5 2.5 2.5 3 0.5 2 4.5 3.5 3 
5.5 1.5 4 4.5 2.5 4 5 6.5 3.5 
5.5 2 1.5 5 5 5.5 4.5 5.5 6.5 
0.5 0.25 0.75 1 0.75 1.25 1.25 1.75 1.5 
0.75 1.25 1.75 2.25 2 2.75 2.25 3.75 4 
2.75 1.75 2 0.75 1.5 0.25 1.25 3 4.25 
3.25 3.5 4.75 2.25 1 2.25 2 3.25 4.25 
4 5.25 4.5 5.75 4.75 1.25 2.5 3.75 5 
2.75 3 1.75 3.75 2.75 3.5 3.25 2.25 3 
4.25 5 5.25 4 4.75 5.5 6.25 5.75 6.75 
6 5.25 6.25 4.5 3.75 4.75 3 2.75 1 
1.75 2.25 4 3.25 4.25 6 2.5 0.75 5.5 
5.75 5.25 5 5.25 4.75 4.75 4.25 4.5 6.25 
6.75 6 5.75 6.25 5.25 4.75 
NORMALS Normals float
0 0 1 0 0 1 0 0 1 
0 0 1 0 1 0 0 1 0 
-1 0 0 0 -1 0 0 1 0 
1 0 0 0 1 0 -1 0 0 
-1 0 0 0 -1 0 0 -1 0 
1 0 0 1 0 0 0 0 -1 
-1 0 0 0 0 -1 0 -1 0 
0 0 -1 1 0 0 0 0 -1 
0 0 1 0 0 1 0 0 1 
0 0 1 0 0 1 0 1 0 
0 1 0 0 1 0 0 1 0 
0 1 0 -1 0 0 -1 0 0 
-1 0 0 -1 0 0 -1 0 0 
0 -1 0 0 -1 0 0 -1 0 
0 -1 0 0 -1 0 1 0 0 
1 0 0 1 0 0 1 0 0 
1 0 0 0 0 -1 0 0 -1 
0 0 -1 0 0 -1 0 0 -1 
0 0 1 0 0 1 0 0 1 
0 0 1 0 0 1 0 0 1 
0 0 1 0 0 1 0 0 1 
0 0 1 0 0 1 0 0 1 
0 0 1 0 0 1 0 0 1 
0 0 1 0 1 0 0 1 0 
0 1 0 0 1 0 0 1 0 
0 1 0 0 1 0 0 1 0 
0 1 0 0 1 0 0 1 0 
0 1 0 0 1 0 0 1 0 
0 1 0 0 1 0 -1 0 0 
-1 0 0 -1 0 0 -1 0 0 
-1 0 0 -1 0 0 -1 0 0 
-1 0 0 -1 0 0 -1 0 0 
-1 0 0 -1 0 0 -1 0 0 
-1 0 0 -1 0 0 -1 0 0 
0 -1 0 0 -1 0 0 -1 0 
0 -1 0 0 -1 0 0 -1 0 
0 -1 0 0 -1 0 0 -1 0 
0 -1 0 0 -1 0 0 -1 0 
0 -1 0 0 -1 0 0 -1 0 
0 -1 0 1 0 0 1 0 0 
1 0 0 1 0 0 1 0 0 
1 0 0 1 0 0 1 0 0 
1 0 0 1 0 0 1 0 0 
1 0 0 1 0 0 1 0 0 
1 0 0 1 0 0 0 0 -1 
0 0 -1 0 0 -1 0 0 -1 
0 0 -1 0 0 -1 0 0 -1 
0 0 -1 0 0 -1 0 0 -1 
0 0 -1 0 0 -1 0 0 -1 
0 0 -1 0 0 -1 0 0 -1 

FIELD FieldData 4
FaceA 1 150 int
0 0 0 0 1 1 1 1 0 
0 0 0 0 0 0 0 1 1 
1 1 1 1 1 1 0 0 0 
0 0 1 1 0 1 1 1 1 
1 0 1 1 0 1 1 1 1 
1 1 0 1 1 1 1 1 1 
0 0 0 0 0 0 0 0 0 
0 0 0 0 0 0 0 1 1 
1 1 1 0 1 0 1 1 1 
1 1 1 1 1 1 1 1 1 
1 1 1 1 1 0 1 1 1 
1 1 0 1 0 1 1 0 1 
1 1 1 1 1 1 1 1 1 
1 1 1 1 1 1 1 1 1 
1 0 1 1 1 1 1 0 1 
1 1 1 1 1 1 1 1 1 
1 1 1 1 1 1 
FaceB 1 150 int
1 1 1 1 0 0 0 0 1 
1 1 1 1 1 1 1 0 0 
0 0 0 0 0 0 1 1 1 
1 1 1 1 1 1 0 1 1 
0 1 1 1 1 1 1 0 1 
0 1 1 1 0 0 0 0 0 
1 1 1 1 1 1 1 1 1 
1 1 1 1 1 1 1 1 1 
1 1 1 1 1 1 1 1 0 
1 1 0 1 1 1 1 1 1 
1 0 1 0 1 1 1 1 1 
1 1 1 1 1 1 1 1 1 
1 1 1 1 1 1 0 1 0 
1 1 0 1 1 0 1 1 1 
1 1 1 1 1 1 1 1 0 
0 0 0 0 0 0 0 0 0 
0 0 0 0 0 0 
FaceC 1 150 int
0 1 1 0 0 1 1 0 0 
0 1 1 1 1 0 0 0 0 
1 1 1 1 0 0 1 1 1 
0 1 1 1 1 0 1 1 1 
1 1 1 1 1 1 0 1 0 
0 0 0 0 1 1 1 0 1 
1 1 1 1 1 1 1 1 1 
0 1 1 1 1 1 0 1 1 
1 1 1 1 1 1 1 0 1 
1 1 1 1 0 1 1 1 1 
1 1 1 1 1 1 1 1 1 
1 1 1 1 1 1 1 1 1 
1 1 1 0 1 1 1 1 1 
0 0 0 0 0 0 0 0 0 
0 0 0 0 0 0 0 0 1 
1 1 1 1 1 1 1 1 0 
1 1 1 1 1 0 
FaceD 1 150 int
0 1 2 3 0 1 2 3 0 
0 1 1 2 2 3 3 0 0 
1 1 2 2 3 3 1 1 2 
2 3 1 1 1 0 1 2 1 
2 2 2 3 3 2 3 3 2 
2 0 2 3 1 2 1 2 3 
1 1 1 2 1 2 2 2 2 
1 2 2 3 3 3 3 1 1 
1 1 1 1 1 1 1 0 1 
1 1 1 1 0 2 1 2 2 
1 2 2 2 2 2 2 2 2 
2 2 2 3 3 3 3 3 2 
3 2 3 3 3 3 3 3 3 
3 3 3 2 1 1 0 1 0 
1 3 3 3 3 3 2 1 2 
2 2 2 2 1 1 1 1 3 
3 3 2 3 2 1 
