# vtk DataFile Version 3.0 
Cube example 
ASCII 
DATASET POLYDATA 
POINTS 8 float 
0.0 0.0 0.0 
30.0 0.0 0.0 
30.0 30.0 0.0 
0.0 30.0 0.0 
0.0 0.0 30.0 
30.0 0.0 30.0
30.0 30.0 30.0
0.0 30.0 30.0
POLYGONS 12 48
3 0 1 2 
3 0 2 3 
3 0 1 5
3 0 5 4
3 1 5 6
3 1 6 2
3 3 2 6
3 3 6 7
3 0 4 7
3 0 7 3
3 4 5 6
3 4 6 7

POINT_DATA 8
SCALARS ID float 1
LOOKUP_TABLE default
0.0 1.0 2.0 3.0 
4.0 5.0 6.0 7.0 

FIELD FieldData 4
FaceA 1 8 int
0 0 0 0 
1 1 1 1
FaceB 1 8 int
1 1 1 1 
0 0 0 0 
FaceC 1 8 int
0 1 1 0 
0 1 1 0 
FaceD 1 8 int
0 1 2 3 
0 1 2 3 
