# vtk DataFile Version 3.0
DataEntityType: Surface mesh
ASCII
DATASET POLYDATA
POINTS 83 float
31.52 -47.94 163.31 9.27 -58.64 204.47 9.6 -59.33 204.96 
13.34 -74.15 210.7 27.72 -61.88 187.15 29.35 -63.44 186.78 
31.51 -74.39 189.72 30.93 -98.24 196.61 30.47 -95.36 195.96 
29.88 -94.71 196.64 10.89 -104.33 175.2 -45.96 -54.65 157.12 
-34.3 -66.59 150.53 -22.85 -92.65 133.77 -24.45 -85.34 130.08 
-18.56 -90.04 123.25 -17.54 -91.88 123.42 13.08 -60.67 123.74 
18.54 -58.86 126.59 16.16 -58.46 128.53 9.44 -71.79 121.55 
13.36 -86.25 131.54 25.82 -87.66 133.52 25.19 -90.54 133.56 
25.76 -89.5 134.57 33.7 -87.02 138.33 32.15 -88.15 136.63 
-7.61 -85.65 199.3 -9.77 -75.56 200.15 -9.91 -57.47 123.21 
-11.14 -57.6 120.25 -7.51 -60.62 119.71 -25.6 -43.59 147.64 
-24.2 -43 146.74 -21.23 -40.84 147.13 -6.33 -37.95 137.24 
-7.5 -35.43 134.37 -1.17 -31.8 136.41 35.29 -53.42 155.91 
35.16 -60.78 158.56 37.12 -56.08 157.19 38.05 -53.35 156.6 
35.72 -52.95 150.89 15.45 -73.09 115.62 14.15 -70.66 119.22 
13.85 -68.01 119.9 30.27 -41.84 162.74 -8.69 -92.13 181.04 
-27.75 -85.88 172.6 -29.25 -86.64 174.53 -29.8 -85.05 174.05 
-30.62 -84.86 174.9 -27.51 -76.61 177.7 -32.09 -79.47 181.53 
-19.71 -60.02 190.21 -7.83 -48.32 184.89 16.46 -47.75 174.95 
25.5 -48.14 164.72 39.63 -64.17 172.08 39.74 -62.59 171.9 
40.88 -66.49 177.48 44.23 -92 183.33 45.92 -94.98 177.5 
47.53 -86.64 171.66 46.43 -83.02 177.99 44.06 -88.1 185.4 
21.44 -101.2 199.22 22.16 -117.99 202.26 37.78 -103.67 186.25 
-11.82 -83.54 197.3 27.53 -105.07 184.34 2.64 -80.52 207.81 
12.5 -90.7 210.36 16.18 -86.15 206.04 -0.48 -83.14 206.11 
1.24 -86.42 208.89 -3.91 -89.65 200.43 -10.88 -110.4 189.85 
-18.52 -95.85 186.49 -5.46 -63.38 203.77 0.94 -63.63 203.86 
-0.66 -70.59 206.81 1.55 -60.16 203.78 
POLYGONS 96 384
3 11 54 55 
3 4 2 5 
3 2 3 5 
3 11 51 53 
3 64 60 65 
3 61 65 68 
3 1 2 4 
3 33 34 36 
3 54 53 79 
3 53 28 79 
3 23 26 68 
3 69 53 77 
3 13 11 14 
3 14 11 30 
3 15 13 14 
3 42 25 43 
3 18 42 43 
3 13 15 16 
3 31 30 43 
3 10 16 23 
3 26 23 43 
3 62 63 64 
3 65 67 68 
3 67 65 7 
3 25 26 43 
3 67 75 77 
3 67 72 75 
3 51 49 77 
3 15 30 31 
3 15 14 30 
3 18 17 37 
3 36 34 37 
3 11 53 54 
3 33 32 34 
3 30 11 36 
3 11 32 36 
3 32 33 36 
3 30 36 37 
3 41 42 46 
3 46 37 55 
3 18 37 42 
3 41 46 59 
3 41 25 42 
3 5 3 60 
3 60 3 65 
3 30 37 43 
3 37 17 43 
3 16 15 43 
3 15 31 43 
3 23 16 43 
3 17 18 43 
3 10 23 67 
3 46 42 37 
3 34 11 55 
3 34 32 11 
3 13 49 51 
3 3 2 81 
3 67 7 72 
3 11 13 51 
3 77 53 51 
3 55 37 34 
3 75 3 81 
3 55 1 46 
3 1 4 46 
3 4 5 60 
3 59 46 60 
3 46 4 60 
3 62 25 63 
3 25 41 63 
3 59 60 64 
3 61 62 65 
3 62 64 65 
3 62 26 25 
3 63 41 64 
3 41 59 64 
3 3 7 65 
3 62 61 68 
3 72 3 75 
3 75 69 77 
3 26 62 68 
3 67 23 68 
3 28 53 69 
3 1 55 82 
3 7 3 72 
3 10 67 77 
3 55 54 79 
3 28 69 75 
3 16 10 77 
3 13 16 77 
3 49 13 77 
3 2 1 82 
3 55 79 82 
3 79 75 81 
3 79 28 75 
3 81 2 82 
3 79 81 82 

POINT_DATA 83
SCALARS ID unsigned_int
LOOKUP_TABLE default
1 2 3 4 5 6 7 8 9 
10 11 12 13 14 15 16 17 18 
19 20 21 22 23 24 25 26 27 
28 29 30 31 32 33 34 35 36 
37 38 39 40 41 42 43 44 45 
46 47 48 49 50 51 52 53 54 
55 56 57 58 59 60 61 62 63 
64 65 66 67 68 69 70 71 72 
73 74 75 76 77 78 79 80 81 
82 83 
VECTORS Vectors float
-0.0112495 0.03125 -0.108749 -0.275001 0.0412483 0.231247 -0.151251 0.115002 -0.0062561 
0.18 0.375 -0.0975037 -0.241249 0.549999 -0.176239 -0.0100002 0.32 0.273758 
1.00625 -0.936249 -0.0712585 -0.251251 1.07375 -0.315002 -0.37125 0.0787506 0.872498 
-0.45875 0.485001 0.307495 -0.0162506 0.910004 -0.0662537 -0.151253 -0.111248 -0.166245 
0.0687485 0.00499725 -0.514999 0.231251 0.677498 -0.653748 0.16625 -0.0262527 -0.271255 
0.227499 0.0400009 0.0362473 0.233751 0.259995 -0.342499 0.82125 -0.170002 -0.462502 
0.0112495 0.110001 -0.219994 1.1075 -0.195 0.0237579 0.0525007 -0.279999 0.034996 
0.0675001 -0.0400009 -0.0187378 0.389999 -0.0387497 -0.270004 0.202499 -0.116249 -0.252502 
-0.0512505 -0.217499 0.082489 -0.0875015 0.21875 -0.214996 0.196247 -0.0875015 0.299988 
-0.682499 -0.415001 0.196243 -0.211249 0.034996 -0.189987 0.125 -0.360001 -0.478752 
0.0450001 -0.377502 -0.453751 0.24625 -0.282501 0.323753 0.223751 -0.1525 0.177505 
-0.231249 -0.60125 -0.152512 0.9275 0.82375 -0.377502 -0.2425 0.5075 -0.237503 
0.0100002 0.251251 -0.212494 -0.1575 -0.232502 -0.383759 0.00499725 0.158749 -0.190002 
0.341251 0.544998 -0.448746 0.0737495 0.217503 -0.198746 0.200001 0.401249 -0.227509 
-0.045002 -0.285 0.5 0.00500011 0.0625 -0.0525055 -0.143749 -0.352493 -0.547501 
-0.0550003 -0.220001 -0.21125 -0.0612507 0.212502 -0.148758 0.0349998 0.123749 -0.299988 
-0.622499 -0.0662537 0.87999 0.581249 0.584999 -0.447495 0.3925 0.662506 -0.360001 
-0.0337486 0.0175018 -0.199997 1.24875 -0.0849991 0.766251 0.6425 0.58625 -0.122498 
0.184999 -0.43375 -0.783752 -0.14625 0.453751 0.158752 0.0737514 0.10125 -0.0200043 
0.235001 0.447498 0.0675049 -0.151253 0.586246 -0.180008 0.445 0.438751 -0.14624 
0.811249 0.518745 0.0862579 0.0200005 -0.241249 -0.03125 -0.0087471 0.572502 -0.00125122 
0.131252 0.282501 0.164993 -0.52 0.302498 0.358749 0.13625 -0.0950012 0.0200043 
0.24625 -0.283752 -0.507507 0.424999 -0.0575027 0.117508 0.0462494 -1.60875 0.764999 
-0.21 -0.184998 -0.262497 -0.272501 -0.254997 0.251251 -0.27125 -0.990005 0.482498 
-1.3075 1.13 -0.0512543 -0.855 0.772499 0.375 -1.16625 0.0824966 -0.175003 
-0.8925 -1.05 0.401245 -0.78125 0.165001 -0.272491 -0.287499 0.147499 -0.111252 
-0.389999 -0.260002 -0.190002 -0.415 0.616253 -0.856247 0.3925 0.233749 -0.15625 
0.1725 -0.197502 0.0412598 0.405 0.196251 -0.287506 
FIELD FieldData 7
LAT 1 83 int
30 -3 -4 -5 18 16 20 15 13 
16 28 -37 -33 21 25 19 26 38 
54 54 30 18 17 19 26 26 18 
2 1 51 50 64 45 44 34 27 
31 42 44 43 45 44 42 43 39 
39 -9 -16 -13 -10 -7 -7 19 15 
-26 -4 6 9 26 -9 10 23 25 
13 17 2 3 2 11 -8 22 -10 
-4 -9 -15 -13 -19 -11 -9 2 3 
2 7 
Unipolar 1 83 float
-0.09 -0.07 -0.16 -0.49 0.98 2.34 0.12 0.42 0.49 
0.33 0.17 0.05 0.21 5.17 -0.01 -1.05 0.48 2.58 
0.32 2.45 0.17 5.74 -2.03 -2.36 -1.18 1.18 1.29 
-0.12 -0.09 2.05 1.85 -3.17 0.47 0.52 0.56 0.84 
0.57 1.22 1.89 0.43 0.57 0.61 -1.87 0.96 0.17 
0.77 0.3 -0.34 0.17 -0.89 -1.04 -0.64 2.33 -1.65 
-0.25 -0.38 0.04 0.93 1.02 0.66 -1.33 -0.01 0.91 
0.4 -0.66 0.44 2.87 0.74 0.64 -0.39 0.38 0.1 
-0.79 -0.36 -0.36 -2.39 -0.23 -0.06 -0.35 -4.32 1.4 
0.78 -1.78 
Bipolar 1 83 float
-0.01 0 0 0 0.02 0 0 0 0 
0 0.01 0.01 0.01 -0.03 0 0 -0.01 0 
0 0.01 0.02 0 0 0.01 0 0 -0.02 
0 0 0.01 0.01 0.11 -0.01 0 0 0 
-0.01 -0.02 -0.06 0 -0.01 0 -0.02 0.02 -0.03 
0 0 0.01 -0.01 0.01 0.04 0.02 0.03 0 
0 0.02 0 -0.02 -0.01 0 0 0 -0.02 
0.01 -0.01 0.01 0 0 0.01 -0.01 0 -0.01 
0 0 -0.01 -0.12 0 -0.01 0 0.02 0 
-0.01 0.18 
Impedance 1 83 float
-1 -1 -1 -1 -1 -1 -1 -1 -1 
-1 -1 -1 -1 -1 -1 -1 -1 -1 
-1 -1 -1 -1 -1 -1 -1 -1 -1 
-1 -1 -1 -1 -1 -1 -1 -1 -1 
-1 -1 -1 -1 -1 -1 -1 -1 -1 
-1 -1 -1 -1 -1 -1 -1 -1 -1 
-1 -1 -1 -1 -1 -1 -1 -1 -1 
-1 -1 -1 -1 -1 -1 -1 -1 -1 
-1 -1 -1 -1 -1 -1 -1 -1 -1 
-1 -1 
ScalarProjectionCentroid 1 83 float
-0.0292904 -0.221792 -0.0360509 0.0785062 0.0545624 -0.268954 -0.697572 0.908777 -0.326375 
0.256288 0.887685 -0.118518 -0.128449 -0.0446268 -0.0984221 0.150971 -0.0769251 -0.472221 
-0.248151 -0.114395 0.0424346 -0.037568 -0.401996 -0.34159 -0.00377393 -0.0286719 0.0797493 
-0.579872 0.0480638 -0.256566 -0.273358 0.433741 0.322731 0.161143 -0.146018 -0.585168 
-0.319213 -0.0762336 -0.155623 -0.645035 -0.242944 -0.44249 0.390276 -0.0456783 -0.499242 
-0.184767 -0.160466 0.230634 -0.705316 0.778216 0.626076 0.0226591 0.973866 0.735268 
0.755152 -0.450123 -0.122717 -0.490392 -0.0168614 -0.535804 -0.894874 -0.127094 0.277132 
-0.0442859 0.459994 -0.142955 0.109186 -0.212123 -1.37521 0.00873493 -0.170474 -0.669385 
0.560616 0.0591099 -0.0678775 -0.822669 0.0286566 0.0498976 -0.314353 0.45597 0.17211 
0.0180128 0.264895 
VectorsProjectionCentroid 3 83 float
0.0194132 0.0216214 -0.00368414 0.00485075 0.0831257 0.202966 0.00107724 0.0128057 0.0332055 
-0.00887992 0.000808114 -0.0771587 -0.0344828 -0.0210864 -0.0347003 0.183937 0.0900397 0.167454 
0.497569 -0.0148581 0.473936 -0.460494 0.501388 -0.590679 0.169856 -0.166637 0.217415 
-0.130419 0.127516 -0.175646 -0.0686843 0.841936 -0.206172 -0.109492 0.038376 -0.0213123 
-0.116209 0.019353 -0.0467361 -0.0276989 -0.0168016 -0.0300821 -0.0624422 -0.0221322 -0.0715269 
0.0740295 0.0448837 0.122093 -0.036307 -0.0254548 -0.0619966 0.0474315 0.131807 -0.444689 
0.0554896 0.0811373 -0.224769 0.0205392 0.0402907 -0.103556 -0.000953685 -0.00173646 0.0419642 
0.00476236 -0.0120289 -0.034657 0.169625 -0.135869 -0.332648 0.136295 -0.136632 -0.276984 
0.00159402 -0.00145008 -0.00304044 0.0174887 -0.00920451 -0.0202945 -0.0449087 0.027314 0.0587269 
-0.244544 -0.182636 0.482949 0.0231294 0.00236928 -0.041328 -0.0918145 0.0814218 -0.223196 
-0.0984121 0.0811215 -0.239083 0.130782 -0.107576 0.394696 0.218654 -0.193685 0.129034 
0.105161 -0.0990573 0.0676285 -0.0877378 0.09733 -0.060926 -0.173267 0.42077 -0.358503 
-0.0945625 0.227728 -0.19833 -0.0135828 0.0595232 -0.0444499 0.114894 0.086621 -0.0503558 
0.545086 0.263079 -0.186101 0.195242 0.119744 -0.0714213 0.344326 0.236251 -0.128858 
-0.275566 -0.209226 0.169494 0.00609218 0.000526159 -0.0449476 0.058137 0.0306861 -0.489414 
0.0206035 0.0214748 -0.180412 0.0886817 0.129137 -0.0201015 0.135203 0.145882 -0.105596 
-0.656491 -0.221251 0.0890198 0.716855 0.246442 -0.130087 0.585349 0.173965 -0.0973363 
0.0211966 0.00606395 -0.00391249 0.921649 0.0747142 -0.256736 0.682621 0.0973037 -0.233223 
0.543024 -0.264343 -0.434994 -0.207195 0.324176 0.219579 0.0344464 0.110781 0.030954 
0.267514 0.399652 -0.0465842 0.0157585 0.00480726 0.00220987 0.493759 0.174982 0.0661633 
0.826568 0.183425 0.248838 0.104529 -0.0533755 0.0455891 -0.232509 0.131842 -0.0607202 
0.0413192 -0.0136613 0.00418138 -0.426687 0.104548 -0.115433 0.119067 -0.0480704 0.0590875 
-0.0321578 0.0677727 -0.0776806 0.0501633 -0.161361 0.125914 0.868752 -0.885943 0.548371 
0.00467175 0.00227457 -0.00684211 0.0799562 -0.131056 0.06952 -0.0925771 -0.109787 0.645662 
-0.0494776 0.204716 -0.513715 -0.0110618 0.0176823 -0.0544522 -0.01467 -0.0156112 0.0635187 
-0.133203 -0.236937 0.767243 0.00903815 0.0117193 -0.0240485 0.0202813 0.0386239 -0.0233117 
-0.210483 -0.173246 0.146969 0.155973 -0.116205 -0.406178 0.033057 -0.0446735 -0.160426 
0.00400155 -0.00137478 -0.0172909 0.0456967 -0.0904398 -0.241006 
VectorsCentroid 3 83 float
-23.1288 -25.7596 4.38928 -0.878796 -15.0596 -36.7707 -1.2088 -14.3696 -37.2607 
-4.9488 0.450363 -43.0007 -19.3288 -11.8196 -19.4507 -20.9588 -10.2596 -19.0807 
-23.1188 0.690361 -22.0207 -22.5388 24.5404 -28.9107 -22.0788 21.6604 -28.2607 
-21.4888 21.0104 -28.9407 -2.4988 30.6304 -7.50072 54.3512 -19.0496 10.5793 
42.6912 -7.10964 17.1693 31.2412 18.9504 33.9293 32.8412 11.6404 37.6193 
26.9512 16.3404 44.4493 25.9312 18.1804 44.2793 -4.6888 -13.0296 43.9593 
-10.1488 -14.8396 41.1093 -7.7688 -15.2396 39.1693 -1.04879 -1.90964 46.1493 
-4.96879 12.5504 36.1593 -17.4288 13.9604 34.1793 -16.7988 16.8404 34.1393 
-17.3688 15.8004 33.1293 -25.3088 13.3204 29.3693 -23.7588 14.4504 31.0693 
16.0012 11.9504 -31.6007 18.1612 1.86036 -32.4507 18.3012 -16.2296 44.4893 
19.5312 -16.0996 47.4493 15.9012 -13.0796 47.9893 33.9912 -30.1096 20.0593 
32.5912 -30.6996 20.9593 29.6212 -32.8596 20.5693 14.7212 -35.7496 30.4593 
15.8912 -38.2696 33.3293 9.5612 -41.8996 31.2893 -26.8988 -20.2796 11.7893 
-26.7688 -12.9196 9.13928 -28.7288 -17.6196 10.5093 -29.6588 -20.3496 11.0993 
-27.3288 -20.7496 16.8093 -7.05879 -0.609642 52.0793 -5.75879 -3.03963 48.4793 
-5.4588 -5.68964 47.7993 -21.8788 -31.8596 4.95927 17.0812 18.4304 -13.3407 
36.1412 12.1804 -4.90073 37.6412 12.9404 -6.83072 38.1912 11.3504 -6.35073 
39.0112 11.1604 -7.20072 35.9012 2.91036 -10.0007 40.4812 5.77036 -13.8307 
28.1012 -13.6796 -22.5107 16.2212 -25.3796 -17.1907 -8.06879 -25.9496 -7.25072 
-17.1088 -25.5596 2.97928 -31.2388 -9.52964 -4.38072 -31.3488 -11.1096 -4.20072 
-32.4888 -7.20964 -9.78072 -35.8388 18.3004 -15.6307 -37.5288 21.2804 -9.80072 
-39.1388 12.9404 -3.96073 -38.0388 9.32036 -10.2907 -35.6688 14.4004 -17.7007 
-13.0488 27.5004 -31.5207 -13.7688 44.2904 -34.5607 -29.3888 29.9704 -18.5507 
20.2112 9.84036 -29.6007 -19.1388 31.3704 -16.6407 5.7512 6.82036 -40.1107 
-4.1088 17.0004 -42.6607 -7.7888 12.4504 -38.3407 8.87121 9.44036 -38.4107 
7.15121 12.7204 -41.1907 12.3012 15.9504 -32.7307 19.2712 36.7004 -22.1507 
26.9112 22.1504 -18.7907 13.8512 -10.3196 -36.0707 7.4512 -10.0696 -36.1607 
9.0512 -3.10964 -39.1107 6.84121 -13.5396 -36.0807 
